9
Properties=species:S:1:pos:R:3:forces:R:3 energy=-266.8444972359 pbc="F F F"
C       -1.15153394      -0.00087508       0.01481330       0.00013077       0.00002872       0.00004573
O       -0.30935343       1.13968385       0.07693990       0.00003761      -0.00004460       0.00013247
C        0.97926862       0.66379591      -0.01842321      -0.00009732       0.00008882      -0.00008201
C        0.97937493      -0.66570018      -0.01429012      -0.00002230      -0.00002060      -0.00006860
O       -0.30919400      -1.14097288       0.08362210      -0.00014589      -0.00006274       0.00020201
H       -1.84655932       0.00160898       0.87095028       0.00009997      -0.00000850      -0.00006406
H       -1.71161155      -0.00345128      -0.94147065      -0.00001795      -0.00005972      -0.00015893
H        1.78484438       1.38753630      -0.05514652       0.00006841       0.00012793       0.00004063
H        1.78524330      -1.38952761      -0.04534507      -0.00005367      -0.00004932      -0.00004743
